ITEM: TIMESTEP
0
ITEM: NUMBER OF ATOMS
2
ITEM: BOX BOUNDS ff ff pp
0 20
0 10
-0.5 0.5
ITEM: ATOMS id x y z vx vy vz 
   1       0.50000000       5.00000000       0.00000000       0.00200000       0.00000000       0.00000000 
   2      19.50000000       5.00000000       0.00000000       0.00200000       0.00000000       0.00000000 
ITEM: TIMESTEP
100
ITEM: NUMBER OF ATOMS
2
ITEM: BOX BOUNDS ff ff pp
0 20
0 10
-0.5 0.5
ITEM: ATOMS id x y z vx vy vz 
   1       0.70000000       5.00000000       0.00000000       0.00200000       0.00000000       0.00000000 
   2      19.70000000       5.00000000       0.00000000       0.00200000       0.00000000       0.00000000 
ITEM: TIMESTEP
200
ITEM: NUMBER OF ATOMS
2
ITEM: BOX BOUNDS ff ff pp
0 20
0 10
-0.5 0.5
ITEM: ATOMS id x y z vx vy vz 
   1       0.90000000       5.00000000       0.00000000       0.00200000       0.00000000       0.00000000 
   2      19.90000000       5.00000000       0.00000000       0.00200000       0.00000000       0.00000000 
ITEM: TIMESTEP
300
ITEM: NUMBER OF ATOMS
2
ITEM: BOX BOUNDS ff ff pp
0 20
0 10
-0.5 0.5
ITEM: ATOMS id x y z vx vy vz 
   1       1.10000000       5.00000000       0.00000000       0.00200000       0.00000000       0.00000000 
   2      19.90000000       5.00000000       0.00000000      -0.00200000       0.00000000       0.00000000 
ITEM: TIMESTEP
400
ITEM: NUMBER OF ATOMS
2
ITEM: BOX BOUNDS ff ff pp
0 20
0 10
-0.5 0.5
ITEM: ATOMS id x y z vx vy vz 
   1       1.30000000       5.00000000       0.00000000       0.00200000       0.00000000       0.00000000 
   2      19.70000000       5.00000000       0.00000000      -0.00200000       0.00000000       0.00000000 
ITEM: TIMESTEP
500
ITEM: NUMBER OF ATOMS
2
ITEM: BOX BOUNDS ff ff pp
0 20
0 10
-0.5 0.5
ITEM: ATOMS id x y z vx vy vz 
   1       1.50000000       5.00000000       0.00000000       0.00200000       0.00000000       0.00000000 
   2      19.50000000       5.00000000       0.00000000      -0.00200000       0.00000000       0.00000000 
ITEM: TIMESTEP
600
ITEM: NUMBER OF ATOMS
2
ITEM: BOX BOUNDS ff ff pp
0 20
0 10
-0.5 0.5
ITEM: ATOMS id x y z vx vy vz 
   1       1.70000000       5.00000000       0.00000000       0.00200000       0.00000000       0.00000000 
   2      19.30000000       5.00000000       0.00000000      -0.00200000       0.00000000       0.00000000 
ITEM: TIMESTEP
700
ITEM: NUMBER OF ATOMS
2
ITEM: BOX BOUNDS ff ff pp
0 20
0 10
-0.5 0.5
ITEM: ATOMS id x y z vx vy vz 
   1       1.90000000       5.00000000       0.00000000       0.00200000       0.00000000       0.00000000 
   2      19.10000000       5.00000000       0.00000000      -0.00200000       0.00000000       0.00000000 
ITEM: TIMESTEP
800
ITEM: NUMBER OF ATOMS
2
ITEM: BOX BOUNDS ff ff pp
0 20
0 10
-0.5 0.5
ITEM: ATOMS id x y z vx vy vz 
   1       2.10000000       5.00000000       0.00000000       0.00200000       0.00000000       0.00000000 
   2      18.90000000       5.00000000       0.00000000      -0.00200000       0.00000000       0.00000000 
ITEM: TIMESTEP
900
ITEM: NUMBER OF ATOMS
2
ITEM: BOX BOUNDS ff ff pp
0 20
0 10
-0.5 0.5
ITEM: ATOMS id x y z vx vy vz 
   1       2.30000000       5.00000000       0.00000000       0.00200000       0.00000000       0.00000000 
   2      18.70000000       5.00000000       0.00000000      -0.00200000       0.00000000       0.00000000 
ITEM: TIMESTEP
1000
ITEM: NUMBER OF ATOMS
2
ITEM: BOX BOUNDS ff ff pp
0 20
0 10
-0.5 0.5
ITEM: ATOMS id x y z vx vy vz 
   1       2.50000000       5.00000000       0.00000000       0.00200000       0.00000000       0.00000000 
   2      18.50000000       5.00000000       0.00000000      -0.00200000       0.00000000       0.00000000 
ITEM: TIMESTEP
1100
ITEM: NUMBER OF ATOMS
2
ITEM: BOX BOUNDS ff ff pp
0 20
0 10
-0.5 0.5
ITEM: ATOMS id x y z vx vy vz 
   1       2.70000000       5.00000000       0.00000000       0.00200000       0.00000000       0.00000000 
   2      18.30000000       5.00000000       0.00000000      -0.00200000       0.00000000       0.00000000 
ITEM: TIMESTEP
1200
ITEM: NUMBER OF ATOMS
2
ITEM: BOX BOUNDS ff ff pp
0 20
0 10
-0.5 0.5
ITEM: ATOMS id x y z vx vy vz 
   1       2.90000000       5.00000000       0.00000000       0.00200000       0.00000000       0.00000000 
   2      18.10000000       5.00000000       0.00000000      -0.00200000       0.00000000       0.00000000 
ITEM: TIMESTEP
1300
ITEM: NUMBER OF ATOMS
2
ITEM: BOX BOUNDS ff ff pp
0 20
0 10
-0.5 0.5
ITEM: ATOMS id x y z vx vy vz 
   1       3.10000000       5.00000000       0.00000000       0.00200000       0.00000000       0.00000000 
   2      17.90000000       5.00000000       0.00000000      -0.00200000       0.00000000       0.00000000 
ITEM: TIMESTEP
1400
ITEM: NUMBER OF ATOMS
2
ITEM: BOX BOUNDS ff ff pp
0 20
0 10
-0.5 0.5
ITEM: ATOMS id x y z vx vy vz 
   1       3.30000000       5.00000000       0.00000000       0.00200000       0.00000000       0.00000000 
   2      17.70000000       5.00000000       0.00000000      -0.00200000       0.00000000       0.00000000 
ITEM: TIMESTEP
1500
ITEM: NUMBER OF ATOMS
2
ITEM: BOX BOUNDS ff ff pp
0 20
0 10
-0.5 0.5
ITEM: ATOMS id x y z vx vy vz 
   1       3.50000000       5.00000000       0.00000000       0.00200000       0.00000000       0.00000000 
   2      17.50000000       5.00000000       0.00000000      -0.00200000       0.00000000       0.00000000 
ITEM: TIMESTEP
1600
ITEM: NUMBER OF ATOMS
2
ITEM: BOX BOUNDS ff ff pp
0 20
0 10
-0.5 0.5
ITEM: ATOMS id x y z vx vy vz 
   1       3.70000000       5.00000000       0.00000000       0.00200000       0.00000000       0.00000000 
   2      17.30000000       5.00000000       0.00000000      -0.00200000       0.00000000       0.00000000 
ITEM: TIMESTEP
1700
ITEM: NUMBER OF ATOMS
2
ITEM: BOX BOUNDS ff ff pp
0 20
0 10
-0.5 0.5
ITEM: ATOMS id x y z vx vy vz 
   1       3.90000000       5.00000000       0.00000000       0.00200000       0.00000000       0.00000000 
   2      17.10000000       5.00000000       0.00000000      -0.00200000       0.00000000       0.00000000 
ITEM: TIMESTEP
1800
ITEM: NUMBER OF ATOMS
2
ITEM: BOX BOUNDS ff ff pp
0 20
0 10
-0.5 0.5
ITEM: ATOMS id x y z vx vy vz 
   1       4.10000000       5.00000000       0.00000000       0.00200000       0.00000000       0.00000000 
   2      16.90000000       5.00000000       0.00000000      -0.00200000       0.00000000       0.00000000 
ITEM: TIMESTEP
1900
ITEM: NUMBER OF ATOMS
2
ITEM: BOX BOUNDS ff ff pp
0 20
0 10
-0.5 0.5
ITEM: ATOMS id x y z vx vy vz 
   1       4.30000000       5.00000000       0.00000000       0.00200000       0.00000000       0.00000000 
   2      16.70000000       5.00000000       0.00000000      -0.00200000       0.00000000       0.00000000 
ITEM: TIMESTEP
2000
ITEM: NUMBER OF ATOMS
2
ITEM: BOX BOUNDS ff ff pp
0 20
0 10
-0.5 0.5
ITEM: ATOMS id x y z vx vy vz 
   1       4.50000000       5.00000000       0.00000000       0.00200000       0.00000000       0.00000000 
   2      16.50000000       5.00000000       0.00000000      -0.00200000       0.00000000       0.00000000 
ITEM: TIMESTEP
2100
ITEM: NUMBER OF ATOMS
2
ITEM: BOX BOUNDS ff ff pp
0 20
0 10
-0.5 0.5
ITEM: ATOMS id x y z vx vy vz 
   1       4.70000000       5.00000000       0.00000000       0.00200000       0.00000000       0.00000000 
   2      16.30000000       5.00000000       0.00000000      -0.00200000       0.00000000       0.00000000 
ITEM: TIMESTEP
2200
ITEM: NUMBER OF ATOMS
2
ITEM: BOX BOUNDS ff ff pp
0 20
0 10
-0.5 0.5
ITEM: ATOMS id x y z vx vy vz 
   1       4.90000000       5.00000000       0.00000000       0.00200000       0.00000000       0.00000000 
   2      16.10000000       5.00000000       0.00000000      -0.00200000       0.00000000       0.00000000 
ITEM: TIMESTEP
2300
ITEM: NUMBER OF ATOMS
2
ITEM: BOX BOUNDS ff ff pp
0 20
0 10
-0.5 0.5
ITEM: ATOMS id x y z vx vy vz 
   1       5.10000000       5.00000000       0.00000000       0.00200000       0.00000000       0.00000000 
   2      15.90000000       5.00000000       0.00000000      -0.00200000       0.00000000       0.00000000 
ITEM: TIMESTEP
2400
ITEM: NUMBER OF ATOMS
2
ITEM: BOX BOUNDS ff ff pp
0 20
0 10
-0.5 0.5
ITEM: ATOMS id x y z vx vy vz 
   1       5.30000000       5.00000000       0.00000000       0.00200000       0.00000000       0.00000000 
   2      15.70000000       5.00000000       0.00000000      -0.00200000       0.00000000       0.00000000 
ITEM: TIMESTEP
2500
ITEM: NUMBER OF ATOMS
2
ITEM: BOX BOUNDS ff ff pp
0 20
0 10
-0.5 0.5
ITEM: ATOMS id x y z vx vy vz 
   1       5.50000000       5.00000000       0.00000000       0.00200000       0.00000000       0.00000000 
   2      15.50000000       5.00000000       0.00000000      -0.00200000       0.00000000       0.00000000 
ITEM: TIMESTEP
2600
ITEM: NUMBER OF ATOMS
2
ITEM: BOX BOUNDS ff ff pp
0 20
0 10
-0.5 0.5
ITEM: ATOMS id x y z vx vy vz 
   1       5.70000000       5.00000000       0.00000000       0.00200000       0.00000000       0.00000000 
   2      15.30000000       5.00000000       0.00000000      -0.00200000       0.00000000       0.00000000 
ITEM: TIMESTEP
2700
ITEM: NUMBER OF ATOMS
2
ITEM: BOX BOUNDS ff ff pp
0 20
0 10
-0.5 0.5
ITEM: ATOMS id x y z vx vy vz 
   1       5.90000000       5.00000000       0.00000000       0.00200000       0.00000000       0.00000000 
   2      15.10000000       5.00000000       0.00000000      -0.00200000       0.00000000       0.00000000 
ITEM: TIMESTEP
2800
ITEM: NUMBER OF ATOMS
2
ITEM: BOX BOUNDS ff ff pp
0 20
0 10
-0.5 0.5
ITEM: ATOMS id x y z vx vy vz 
   1       6.10000000       5.00000000       0.00000000       0.00200000       0.00000000       0.00000000 
   2      14.90000000       5.00000000       0.00000000      -0.00200000       0.00000000       0.00000000 
ITEM: TIMESTEP
2900
ITEM: NUMBER OF ATOMS
2
ITEM: BOX BOUNDS ff ff pp
0 20
0 10
-0.5 0.5
ITEM: ATOMS id x y z vx vy vz 
   1       6.30000000       5.00000000       0.00000000       0.00200000       0.00000000       0.00000000 
   2      14.70000000       5.00000000       0.00000000      -0.00200000       0.00000000       0.00000000 
ITEM: TIMESTEP
3000
ITEM: NUMBER OF ATOMS
2
ITEM: BOX BOUNDS ff ff pp
0 20
0 10
-0.5 0.5
ITEM: ATOMS id x y z vx vy vz 
   1       6.50000000       5.00000000       0.00000000       0.00200000       0.00000000       0.00000000 
   2      14.50000000       5.00000000       0.00000000      -0.00200000       0.00000000       0.00000000 
ITEM: TIMESTEP
3100
ITEM: NUMBER OF ATOMS
2
ITEM: BOX BOUNDS ff ff pp
0 20
0 10
-0.5 0.5
ITEM: ATOMS id x y z vx vy vz 
   1       6.70000000       5.00000000       0.00000000       0.00200000       0.00000000       0.00000000 
   2      14.30000000       5.00000000       0.00000000      -0.00200000       0.00000000       0.00000000 
ITEM: TIMESTEP
3200
ITEM: NUMBER OF ATOMS
2
ITEM: BOX BOUNDS ff ff pp
0 20
0 10
-0.5 0.5
ITEM: ATOMS id x y z vx vy vz 
   1       6.90000000       5.00000000       0.00000000       0.00200000       0.00000000       0.00000000 
   2      14.10000000       5.00000000       0.00000000      -0.00200000       0.00000000       0.00000000 
ITEM: TIMESTEP
3300
ITEM: NUMBER OF ATOMS
2
ITEM: BOX BOUNDS ff ff pp
0 20
0 10
-0.5 0.5
ITEM: ATOMS id x y z vx vy vz 
   1       7.10000000       5.00000000       0.00000000       0.00200000       0.00000000       0.00000000 
   2      13.90000000       5.00000000       0.00000000      -0.00200000       0.00000000       0.00000000 
ITEM: TIMESTEP
3400
ITEM: NUMBER OF ATOMS
2
ITEM: BOX BOUNDS ff ff pp
0 20
0 10
-0.5 0.5
ITEM: ATOMS id x y z vx vy vz 
   1       7.30000000       5.00000000       0.00000000       0.00200000       0.00000000       0.00000000 
   2      13.70000000       5.00000000       0.00000000      -0.00200000       0.00000000       0.00000000 
ITEM: TIMESTEP
3500
ITEM: NUMBER OF ATOMS
2
ITEM: BOX BOUNDS ff ff pp
0 20
0 10
-0.5 0.5
ITEM: ATOMS id x y z vx vy vz 
   1       7.50000000       5.00000000       0.00000000       0.00200000       0.00000000       0.00000000 
   2      13.50000000       5.00000000       0.00000000      -0.00200000       0.00000000       0.00000000 
ITEM: TIMESTEP
3600
ITEM: NUMBER OF ATOMS
2
ITEM: BOX BOUNDS ff ff pp
0 20
0 10
-0.5 0.5
ITEM: ATOMS id x y z vx vy vz 
   1       7.70000000       5.00000000       0.00000000       0.00200000       0.00000000       0.00000000 
   2      13.30000000       5.00000000       0.00000000      -0.00200000       0.00000000       0.00000000 
ITEM: TIMESTEP
3700
ITEM: NUMBER OF ATOMS
2
ITEM: BOX BOUNDS ff ff pp
0 20
0 10
-0.5 0.5
ITEM: ATOMS id x y z vx vy vz 
   1       7.90000000       5.00000000       0.00000000       0.00200000       0.00000000       0.00000000 
   2      13.10000000       5.00000000       0.00000000      -0.00200000       0.00000000       0.00000000 
ITEM: TIMESTEP
3800
ITEM: NUMBER OF ATOMS
2
ITEM: BOX BOUNDS ff ff pp
0 20
0 10
-0.5 0.5
ITEM: ATOMS id x y z vx vy vz 
   1       8.10000000       5.00000000       0.00000000       0.00200000       0.00000000       0.00000000 
   2      12.90000000       5.00000000       0.00000000      -0.00200000       0.00000000       0.00000000 
ITEM: TIMESTEP
3900
ITEM: NUMBER OF ATOMS
2
ITEM: BOX BOUNDS ff ff pp
0 20
0 10
-0.5 0.5
ITEM: ATOMS id x y z vx vy vz 
   1       8.30000000       5.00000000       0.00000000       0.00200000       0.00000000       0.00000000 
   2      12.70000000       5.00000000       0.00000000      -0.00200000       0.00000000       0.00000000 
ITEM: TIMESTEP
4000
ITEM: NUMBER OF ATOMS
2
ITEM: BOX BOUNDS ff ff pp
0 20
0 10
-0.5 0.5
ITEM: ATOMS id x y z vx vy vz 
   1       8.50000000       5.00000000       0.00000000       0.00200000       0.00000000       0.00000000 
   2      12.50000000       5.00000000       0.00000000      -0.00200000       0.00000000       0.00000000 
ITEM: TIMESTEP
4100
ITEM: NUMBER OF ATOMS
2
ITEM: BOX BOUNDS ff ff pp
0 20
0 10
-0.5 0.5
ITEM: ATOMS id x y z vx vy vz 
   1       8.70000000       5.00000000       0.00000000       0.00200000       0.00000000       0.00000000 
   2      12.30000000       5.00000000       0.00000000      -0.00200000       0.00000000       0.00000000 
ITEM: TIMESTEP
4200
ITEM: NUMBER OF ATOMS
2
ITEM: BOX BOUNDS ff ff pp
0 20
0 10
-0.5 0.5
ITEM: ATOMS id x y z vx vy vz 
   1       8.90000000       5.00000000       0.00000000       0.00200000       0.00000000       0.00000000 
   2      12.10000000       5.00000000       0.00000000      -0.00200000       0.00000000       0.00000000 
ITEM: TIMESTEP
4300
ITEM: NUMBER OF ATOMS
2
ITEM: BOX BOUNDS ff ff pp
0 20
0 10
-0.5 0.5
ITEM: ATOMS id x y z vx vy vz 
   1       9.10000000       5.00000000       0.00000000       0.00200000       0.00000000       0.00000000 
   2      11.90000000       5.00000000       0.00000000      -0.00200000       0.00000000       0.00000000 
ITEM: TIMESTEP
4400
ITEM: NUMBER OF ATOMS
2
ITEM: BOX BOUNDS ff ff pp
0 20
0 10
-0.5 0.5
ITEM: ATOMS id x y z vx vy vz 
   1       9.29999997       5.00000000       0.00000000       0.00200000       0.00000000       0.00000000 
   2      11.70000001       5.00000000       0.00000000      -0.00200000       0.00000000       0.00000000 
ITEM: TIMESTEP
4500
ITEM: NUMBER OF ATOMS
2
ITEM: BOX BOUNDS ff ff pp
0 20
0 10
-0.5 0.5
ITEM: ATOMS id x y z vx vy vz 
   1       9.49999487       5.00000000       0.00000000       0.00199979       0.00000000       0.00000000 
   2      11.50000258       5.00000000       0.00000000      -0.00199989       0.00000000       0.00000000 
ITEM: TIMESTEP
4600
ITEM: NUMBER OF ATOMS
2
ITEM: BOX BOUNDS ff ff pp
0 20
0 10
-0.5 0.5
ITEM: ATOMS id x y z vx vy vz 
   1       9.69970877       5.00000000       0.00000000       0.00198835       0.00000000       0.00000000 
   2      11.30014677       5.00000000       0.00000000      -0.00199413       0.00000000       0.00000000 
ITEM: TIMESTEP
4700
ITEM: NUMBER OF ATOMS
2
ITEM: BOX BOUNDS ff ff pp
0 20
0 10
-0.5 0.5
ITEM: ATOMS id x y z vx vy vz 
   1       9.88494721       5.00000000       0.00000000       0.00143058       0.00000000       0.00000000 
   2      11.10758638       5.00000000       0.00000000      -0.00171302       0.00000000       0.00000000 
ITEM: TIMESTEP
4800
ITEM: NUMBER OF ATOMS
2
ITEM: BOX BOUNDS ff ff pp
0 20
0 10
-0.5 0.5
ITEM: ATOMS id x y z vx vy vz 
   1       9.83126502       5.00000000       0.00000000      -0.00261418       0.00000000       0.00000000 
   2      11.03543840       5.00000000       0.00000000       0.00032548       0.00000000       0.00000000 
ITEM: TIMESTEP
4900
ITEM: NUMBER OF ATOMS
2
ITEM: BOX BOUNDS ff ff pp
0 20
0 10
-0.5 0.5
ITEM: ATOMS id x y z vx vy vz 
   1       9.51787748       5.00000000       0.00000000      -0.00330436       0.00000000       0.00000000 
   2      11.09417802       5.00000000       0.00000000       0.00067332       0.00000000       0.00000000 
ITEM: TIMESTEP
5000
ITEM: NUMBER OF ATOMS
2
ITEM: BOX BOUNDS ff ff pp
0 20
0 10
-0.5 0.5
ITEM: ATOMS id x y z vx vy vz 
   1       9.18632186       5.00000000       0.00000000      -0.00331893       0.00000000       0.00000000 
   2      11.16207408       5.00000000       0.00000000       0.00068066       0.00000000       0.00000000 
ITEM: TIMESTEP
5100
ITEM: NUMBER OF ATOMS
2
ITEM: BOX BOUNDS ff ff pp
0 20
0 10
-0.5 0.5
ITEM: ATOMS id x y z vx vy vz 
   1       8.85440820       5.00000000       0.00000000      -0.00331920       0.00000000       0.00000000 
   2      11.23015058       5.00000000       0.00000000       0.00068080       0.00000000       0.00000000 
ITEM: TIMESTEP
5200
ITEM: NUMBER OF ATOMS
2
ITEM: BOX BOUNDS ff ff pp
0 20
0 10
-0.5 0.5
ITEM: ATOMS id x y z vx vy vz 
   1       8.52248804       5.00000000       0.00000000      -0.00331920       0.00000000       0.00000000 
   2      11.29823037       5.00000000       0.00000000       0.00068080       0.00000000       0.00000000 
ITEM: TIMESTEP
5300
ITEM: NUMBER OF ATOMS
2
ITEM: BOX BOUNDS ff ff pp
0 20
0 10
-0.5 0.5
ITEM: ATOMS id x y z vx vy vz 
   1       8.19056784       5.00000000       0.00000000      -0.00331920       0.00000000       0.00000000 
   2      11.36631017       5.00000000       0.00000000       0.00068080       0.00000000       0.00000000 
ITEM: TIMESTEP
5400
ITEM: NUMBER OF ATOMS
2
ITEM: BOX BOUNDS ff ff pp
0 20
0 10
-0.5 0.5
ITEM: ATOMS id x y z vx vy vz 
   1       7.85864763       5.00000000       0.00000000      -0.00331920       0.00000000       0.00000000 
   2      11.43438997       5.00000000       0.00000000       0.00068080       0.00000000       0.00000000 
ITEM: TIMESTEP
5500
ITEM: NUMBER OF ATOMS
2
ITEM: BOX BOUNDS ff ff pp
0 20
0 10
-0.5 0.5
ITEM: ATOMS id x y z vx vy vz 
   1       7.52672743       5.00000000       0.00000000      -0.00331920       0.00000000       0.00000000 
   2      11.50246978       5.00000000       0.00000000       0.00068080       0.00000000       0.00000000 
ITEM: TIMESTEP
5600
ITEM: NUMBER OF ATOMS
2
ITEM: BOX BOUNDS ff ff pp
0 20
0 10
-0.5 0.5
ITEM: ATOMS id x y z vx vy vz 
   1       7.19480722       5.00000000       0.00000000      -0.00331920       0.00000000       0.00000000 
   2      11.57054958       5.00000000       0.00000000       0.00068080       0.00000000       0.00000000 
ITEM: TIMESTEP
5700
ITEM: NUMBER OF ATOMS
2
ITEM: BOX BOUNDS ff ff pp
0 20
0 10
-0.5 0.5
ITEM: ATOMS id x y z vx vy vz 
   1       6.86288702       5.00000000       0.00000000      -0.00331920       0.00000000       0.00000000 
   2      11.63862939       5.00000000       0.00000000       0.00068080       0.00000000       0.00000000 
ITEM: TIMESTEP
5800
ITEM: NUMBER OF ATOMS
2
ITEM: BOX BOUNDS ff ff pp
0 20
0 10
-0.5 0.5
ITEM: ATOMS id x y z vx vy vz 
   1       6.53096682       5.00000000       0.00000000      -0.00331920       0.00000000       0.00000000 
   2      11.70670919       5.00000000       0.00000000       0.00068080       0.00000000       0.00000000 
ITEM: TIMESTEP
5900
ITEM: NUMBER OF ATOMS
2
ITEM: BOX BOUNDS ff ff pp
0 20
0 10
-0.5 0.5
ITEM: ATOMS id x y z vx vy vz 
   1       6.19904661       5.00000000       0.00000000      -0.00331920       0.00000000       0.00000000 
   2      11.77478899       5.00000000       0.00000000       0.00068080       0.00000000       0.00000000 
ITEM: TIMESTEP
6000
ITEM: NUMBER OF ATOMS
2
ITEM: BOX BOUNDS ff ff pp
0 20
0 10
-0.5 0.5
ITEM: ATOMS id x y z vx vy vz 
   1       5.86712641       5.00000000       0.00000000      -0.00331920       0.00000000       0.00000000 
   2      11.84286880       5.00000000       0.00000000       0.00068080       0.00000000       0.00000000 
ITEM: TIMESTEP
6100
ITEM: NUMBER OF ATOMS
2
ITEM: BOX BOUNDS ff ff pp
0 20
0 10
-0.5 0.5
ITEM: ATOMS id x y z vx vy vz 
   1       5.53520620       5.00000000       0.00000000      -0.00331920       0.00000000       0.00000000 
   2      11.91094860       5.00000000       0.00000000       0.00068080       0.00000000       0.00000000 
ITEM: TIMESTEP
6200
ITEM: NUMBER OF ATOMS
2
ITEM: BOX BOUNDS ff ff pp
0 20
0 10
-0.5 0.5
ITEM: ATOMS id x y z vx vy vz 
   1       5.20328600       5.00000000       0.00000000      -0.00331920       0.00000000       0.00000000 
   2      11.97902841       5.00000000       0.00000000       0.00068080       0.00000000       0.00000000 
ITEM: TIMESTEP
6300
ITEM: NUMBER OF ATOMS
2
ITEM: BOX BOUNDS ff ff pp
0 20
0 10
-0.5 0.5
ITEM: ATOMS id x y z vx vy vz 
   1       4.87136580       5.00000000       0.00000000      -0.00331920       0.00000000       0.00000000 
   2      12.04710821       5.00000000       0.00000000       0.00068080       0.00000000       0.00000000 
ITEM: TIMESTEP
6400
ITEM: NUMBER OF ATOMS
2
ITEM: BOX BOUNDS ff ff pp
0 20
0 10
-0.5 0.5
ITEM: ATOMS id x y z vx vy vz 
   1       4.53944559       5.00000000       0.00000000      -0.00331920       0.00000000       0.00000000 
   2      12.11518801       5.00000000       0.00000000       0.00068080       0.00000000       0.00000000 
ITEM: TIMESTEP
6500
ITEM: NUMBER OF ATOMS
2
ITEM: BOX BOUNDS ff ff pp
0 20
0 10
-0.5 0.5
ITEM: ATOMS id x y z vx vy vz 
   1       4.20752539       5.00000000       0.00000000      -0.00331920       0.00000000       0.00000000 
   2      12.18326782       5.00000000       0.00000000       0.00068080       0.00000000       0.00000000 
ITEM: TIMESTEP
6600
ITEM: NUMBER OF ATOMS
2
ITEM: BOX BOUNDS ff ff pp
0 20
0 10
-0.5 0.5
ITEM: ATOMS id x y z vx vy vz 
   1       3.87560518       5.00000000       0.00000000      -0.00331920       0.00000000       0.00000000 
   2      12.25134762       5.00000000       0.00000000       0.00068080       0.00000000       0.00000000 
ITEM: TIMESTEP
6700
ITEM: NUMBER OF ATOMS
2
ITEM: BOX BOUNDS ff ff pp
0 20
0 10
-0.5 0.5
ITEM: ATOMS id x y z vx vy vz 
   1       3.54368498       5.00000000       0.00000000      -0.00331920       0.00000000       0.00000000 
   2      12.31942743       5.00000000       0.00000000       0.00068080       0.00000000       0.00000000 
ITEM: TIMESTEP
6800
ITEM: NUMBER OF ATOMS
2
ITEM: BOX BOUNDS ff ff pp
0 20
0 10
-0.5 0.5
ITEM: ATOMS id x y z vx vy vz 
   1       3.21176477       5.00000000       0.00000000      -0.00331920       0.00000000       0.00000000 
   2      12.38750723       5.00000000       0.00000000       0.00068080       0.00000000       0.00000000 
ITEM: TIMESTEP
6900
ITEM: NUMBER OF ATOMS
2
ITEM: BOX BOUNDS ff ff pp
0 20
0 10
-0.5 0.5
ITEM: ATOMS id x y z vx vy vz 
   1       2.87984457       5.00000000       0.00000000      -0.00331920       0.00000000       0.00000000 
   2      12.45558703       5.00000000       0.00000000       0.00068080       0.00000000       0.00000000 
ITEM: TIMESTEP
7000
ITEM: NUMBER OF ATOMS
2
ITEM: BOX BOUNDS ff ff pp
0 20
0 10
-0.5 0.5
ITEM: ATOMS id x y z vx vy vz 
   1       2.54792437       5.00000000       0.00000000      -0.00331920       0.00000000       0.00000000 
   2      12.52366684       5.00000000       0.00000000       0.00068080       0.00000000       0.00000000 
ITEM: TIMESTEP
7100
ITEM: NUMBER OF ATOMS
2
ITEM: BOX BOUNDS ff ff pp
0 20
0 10
-0.5 0.5
ITEM: ATOMS id x y z vx vy vz 
   1       2.21600416       5.00000000       0.00000000      -0.00331920       0.00000000       0.00000000 
   2      12.59174664       5.00000000       0.00000000       0.00068080       0.00000000       0.00000000 
ITEM: TIMESTEP
7200
ITEM: NUMBER OF ATOMS
2
ITEM: BOX BOUNDS ff ff pp
0 20
0 10
-0.5 0.5
ITEM: ATOMS id x y z vx vy vz 
   1       1.88408396       5.00000000       0.00000000      -0.00331920       0.00000000       0.00000000 
   2      12.65982645       5.00000000       0.00000000       0.00068080       0.00000000       0.00000000 
ITEM: TIMESTEP
7300
ITEM: NUMBER OF ATOMS
2
ITEM: BOX BOUNDS ff ff pp
0 20
0 10
-0.5 0.5
ITEM: ATOMS id x y z vx vy vz 
   1       1.55216375       5.00000000       0.00000000      -0.00331920       0.00000000       0.00000000 
   2      12.72790625       5.00000000       0.00000000       0.00068080       0.00000000       0.00000000 
ITEM: TIMESTEP
7400
ITEM: NUMBER OF ATOMS
2
ITEM: BOX BOUNDS ff ff pp
0 20
0 10
-0.5 0.5
ITEM: ATOMS id x y z vx vy vz 
   1       1.22024355       5.00000000       0.00000000      -0.00331920       0.00000000       0.00000000 
   2      12.79598605       5.00000000       0.00000000       0.00068080       0.00000000       0.00000000 
ITEM: TIMESTEP
7500
ITEM: NUMBER OF ATOMS
2
ITEM: BOX BOUNDS ff ff pp
0 20
0 10
-0.5 0.5
ITEM: ATOMS id x y z vx vy vz 
   1       0.88832335       5.00000000       0.00000000      -0.00331920       0.00000000       0.00000000 
   2      12.86406586       5.00000000       0.00000000       0.00068080       0.00000000       0.00000000 
ITEM: TIMESTEP
7600
ITEM: NUMBER OF ATOMS
2
ITEM: BOX BOUNDS ff ff pp
0 20
0 10
-0.5 0.5
ITEM: ATOMS id x y z vx vy vz 
   1       0.55640314       5.00000000       0.00000000      -0.00331920       0.00000000       0.00000000 
   2      12.93214566       5.00000000       0.00000000       0.00068080       0.00000000       0.00000000 
ITEM: TIMESTEP
7700
ITEM: NUMBER OF ATOMS
2
ITEM: BOX BOUNDS ff ff pp
0 20
0 10
-0.5 0.5
ITEM: ATOMS id x y z vx vy vz 
   1       0.22448294       5.00000000       0.00000000      -0.00331920       0.00000000       0.00000000 
   2      13.00022547       5.00000000       0.00000000       0.00068080       0.00000000       0.00000000 
ITEM: TIMESTEP
7800
ITEM: NUMBER OF ATOMS
2
ITEM: BOX BOUNDS ff ff pp
0 20
0 10
-0.5 0.5
ITEM: ATOMS id x y z vx vy vz 
   1       0.10743727       5.00000000       0.00000000       0.00331920       0.00000000       0.00000000 
   2      13.06830527       5.00000000       0.00000000       0.00068080       0.00000000       0.00000000 
ITEM: TIMESTEP
7900
ITEM: NUMBER OF ATOMS
2
ITEM: BOX BOUNDS ff ff pp
0 20
0 10
-0.5 0.5
ITEM: ATOMS id x y z vx vy vz 
   1       0.43935747       5.00000000       0.00000000       0.00331920       0.00000000       0.00000000 
   2      13.13638507       5.00000000       0.00000000       0.00068080       0.00000000       0.00000000 
ITEM: TIMESTEP
8000
ITEM: NUMBER OF ATOMS
2
ITEM: BOX BOUNDS ff ff pp
0 20
0 10
-0.5 0.5
ITEM: ATOMS id x y z vx vy vz 
   1       0.77127767       5.00000000       0.00000000       0.00331920       0.00000000       0.00000000 
   2      13.20446488       5.00000000       0.00000000       0.00068080       0.00000000       0.00000000 
ITEM: TIMESTEP
8100
ITEM: NUMBER OF ATOMS
2
ITEM: BOX BOUNDS ff ff pp
0 20
0 10
-0.5 0.5
ITEM: ATOMS id x y z vx vy vz 
   1       1.10319788       5.00000000       0.00000000       0.00331920       0.00000000       0.00000000 
   2      13.27254468       5.00000000       0.00000000       0.00068080       0.00000000       0.00000000 
ITEM: TIMESTEP
8200
ITEM: NUMBER OF ATOMS
2
ITEM: BOX BOUNDS ff ff pp
0 20
0 10
-0.5 0.5
ITEM: ATOMS id x y z vx vy vz 
   1       1.43511808       5.00000000       0.00000000       0.00331920       0.00000000       0.00000000 
   2      13.34062449       5.00000000       0.00000000       0.00068080       0.00000000       0.00000000 
ITEM: TIMESTEP
8300
ITEM: NUMBER OF ATOMS
2
ITEM: BOX BOUNDS ff ff pp
0 20
0 10
-0.5 0.5
ITEM: ATOMS id x y z vx vy vz 
   1       1.76703829       5.00000000       0.00000000       0.00331920       0.00000000       0.00000000 
   2      13.40870429       5.00000000       0.00000000       0.00068080       0.00000000       0.00000000 
ITEM: TIMESTEP
8400
ITEM: NUMBER OF ATOMS
2
ITEM: BOX BOUNDS ff ff pp
0 20
0 10
-0.5 0.5
ITEM: ATOMS id x y z vx vy vz 
   1       2.09895849       5.00000000       0.00000000       0.00331920       0.00000000       0.00000000 
   2      13.47678409       5.00000000       0.00000000       0.00068080       0.00000000       0.00000000 
ITEM: TIMESTEP
8500
ITEM: NUMBER OF ATOMS
2
ITEM: BOX BOUNDS ff ff pp
0 20
0 10
-0.5 0.5
ITEM: ATOMS id x y z vx vy vz 
   1       2.43087869       5.00000000       0.00000000       0.00331920       0.00000000       0.00000000 
   2      13.54486390       5.00000000       0.00000000       0.00068080       0.00000000       0.00000000 
ITEM: TIMESTEP
8600
ITEM: NUMBER OF ATOMS
2
ITEM: BOX BOUNDS ff ff pp
0 20
0 10
-0.5 0.5
ITEM: ATOMS id x y z vx vy vz 